# vtk DataFile Version 4.2
File created by MooNMD, Computational Time : 0.000000000, Date & Time: Wed Oct 16 18:47:06 2019

ASCII
DATASET UNSTRUCTURED_GRID
POINTS 289 float
0.437500000 0.812500000 0.000000000
0.375000000 0.812500000 0.000000000
0.312500000 0.812500000 0.000000000
0.312500000 1.000000000 0.000000000
0.312500000 0.875000000 0.000000000
0.312500000 0.937500000 0.000000000
0.437500000 0.875000000 0.000000000
0.375000000 0.937500000 0.000000000
0.437500000 1.000000000 0.000000000
0.437500000 0.937500000 0.000000000
0.312500000 0.562500000 0.000000000
0.312500000 0.750000000 0.000000000
0.312500000 0.625000000 0.000000000
0.312500000 0.687500000 0.000000000
0.375000000 0.687500000 0.000000000
0.437500000 0.750000000 0.000000000
0.437500000 0.687500000 0.000000000
0.375000000 0.562500000 0.000000000
0.437500000 0.625000000 0.000000000
0.437500000 0.562500000 0.000000000
0.000000000 0.687500000 0.000000000
0.062500000 0.687500000 0.000000000
0.250000000 0.687500000 0.000000000
0.125000000 0.687500000 0.000000000
0.187500000 0.687500000 0.000000000
0.187500000 0.625000000 0.000000000
0.250000000 0.562500000 0.000000000
0.187500000 0.562500000 0.000000000
0.000000000 0.562500000 0.000000000
0.062500000 0.625000000 0.000000000
0.125000000 0.562500000 0.000000000
0.062500000 0.562500000 0.000000000
0.250000000 0.937500000 0.000000000
0.187500000 1.000000000 0.000000000
0.187500000 0.937500000 0.000000000
0.187500000 0.750000000 0.000000000
0.187500000 0.875000000 0.000000000
0.250000000 0.812500000 0.000000000
0.187500000 0.812500000 0.000000000
0.000000000 0.812500000 0.000000000
0.125000000 0.812500000 0.000000000
0.062500000 0.750000000 0.000000000
0.062500000 0.812500000 0.000000000
0.062500000 1.000000000 0.000000000
0.125000000 0.937500000 0.000000000
0.062500000 0.875000000 0.000000000
0.000000000 0.937500000 0.000000000
0.062500000 0.937500000 0.000000000
0.812500000 0.562500000 0.000000000
0.812500000 0.625000000 0.000000000
0.812500000 0.687500000 0.000000000
1.000000000 0.687500000 0.000000000
0.875000000 0.687500000 0.000000000
0.937500000 0.687500000 0.000000000
0.875000000 0.562500000 0.000000000
0.937500000 0.625000000 0.000000000
1.000000000 0.562500000 0.000000000
0.937500000 0.562500000 0.000000000
0.500000000 0.687500000 0.000000000
0.562500000 0.687500000 0.000000000
0.750000000 0.687500000 0.000000000
0.625000000 0.687500000 0.000000000
0.687500000 0.687500000 0.000000000
0.687500000 0.625000000 0.000000000
0.750000000 0.562500000 0.000000000
0.687500000 0.562500000 0.000000000
0.500000000 0.562500000 0.000000000
0.562500000 0.625000000 0.000000000
0.625000000 0.562500000 0.000000000
0.562500000 0.562500000 0.000000000
0.687500000 1.000000000 0.000000000
0.687500000 0.937500000 0.000000000
0.687500000 0.750000000 0.000000000
0.687500000 0.875000000 0.000000000
0.687500000 0.812500000 0.000000000
0.500000000 0.812500000 0.000000000
0.625000000 0.812500000 0.000000000
0.562500000 0.750000000 0.000000000
0.562500000 0.812500000 0.000000000
0.562500000 1.000000000 0.000000000
0.625000000 0.937500000 0.000000000
0.562500000 0.875000000 0.000000000
0.500000000 0.937500000 0.000000000
0.562500000 0.937500000 0.000000000
0.937500000 0.750000000 0.000000000
1.000000000 0.812500000 0.000000000
0.937500000 0.812500000 0.000000000
0.750000000 0.812500000 0.000000000
0.875000000 0.812500000 0.000000000
0.812500000 0.750000000 0.000000000
0.812500000 0.812500000 0.000000000
0.812500000 1.000000000 0.000000000
0.812500000 0.875000000 0.000000000
0.750000000 0.937500000 0.000000000
0.812500000 0.937500000 0.000000000
1.000000000 0.937500000 0.000000000
0.937500000 0.875000000 0.000000000
0.875000000 0.937500000 0.000000000
0.937500000 1.000000000 0.000000000
0.937500000 0.937500000 0.000000000
0.562500000 0.187500000 0.000000000
0.625000000 0.187500000 0.000000000
0.687500000 0.187500000 0.000000000
0.687500000 0.000000000 0.000000000
0.687500000 0.125000000 0.000000000
0.687500000 0.062500000 0.000000000
0.562500000 0.125000000 0.000000000
0.625000000 0.062500000 0.000000000
0.562500000 0.000000000 0.000000000
0.562500000 0.062500000 0.000000000
0.687500000 0.500000000 0.000000000
0.687500000 0.437500000 0.000000000
0.687500000 0.250000000 0.000000000
0.687500000 0.375000000 0.000000000
0.687500000 0.312500000 0.000000000
0.625000000 0.312500000 0.000000000
0.562500000 0.250000000 0.000000000
0.562500000 0.312500000 0.000000000
0.562500000 0.500000000 0.000000000
0.625000000 0.437500000 0.000000000
0.562500000 0.375000000 0.000000000
0.562500000 0.437500000 0.000000000
1.000000000 0.312500000 0.000000000
0.937500000 0.312500000 0.000000000
0.750000000 0.312500000 0.000000000
0.875000000 0.312500000 0.000000000
0.812500000 0.312500000 0.000000000
0.812500000 0.500000000 0.000000000
0.812500000 0.375000000 0.000000000
0.750000000 0.437500000 0.000000000
0.812500000 0.437500000 0.000000000
1.000000000 0.437500000 0.000000000
0.937500000 0.375000000 0.000000000
0.875000000 0.437500000 0.000000000
0.937500000 0.500000000 0.000000000
0.937500000 0.437500000 0.000000000
0.750000000 0.062500000 0.000000000
0.812500000 0.000000000 0.000000000
0.812500000 0.062500000 0.000000000
0.812500000 0.250000000 0.000000000
0.812500000 0.125000000 0.000000000
0.750000000 0.187500000 0.000000000
0.812500000 0.187500000 0.000000000
1.000000000 0.187500000 0.000000000
0.875000000 0.187500000 0.000000000
0.937500000 0.250000000 0.000000000
0.937500000 0.187500000 0.000000000
0.937500000 0.000000000 0.000000000
0.875000000 0.062500000 0.000000000
0.937500000 0.125000000 0.000000000
1.000000000 0.062500000 0.000000000
0.937500000 0.062500000 0.000000000
0.187500000 0.500000000 0.000000000
0.187500000 0.437500000 0.000000000
0.187500000 0.375000000 0.000000000
0.187500000 0.312500000 0.000000000
0.000000000 0.312500000 0.000000000
0.125000000 0.312500000 0.000000000
0.062500000 0.312500000 0.000000000
0.062500000 0.500000000 0.000000000
0.125000000 0.437500000 0.000000000
0.062500000 0.375000000 0.000000000
0.000000000 0.437500000 0.000000000
0.062500000 0.437500000 0.000000000
0.500000000 0.312500000 0.000000000
0.437500000 0.312500000 0.000000000
0.250000000 0.312500000 0.000000000
0.375000000 0.312500000 0.000000000
0.312500000 0.312500000 0.000000000
0.312500000 0.500000000 0.000000000
0.312500000 0.375000000 0.000000000
0.250000000 0.437500000 0.000000000
0.312500000 0.437500000 0.000000000
0.500000000 0.437500000 0.000000000
0.437500000 0.375000000 0.000000000
0.375000000 0.437500000 0.000000000
0.437500000 0.500000000 0.000000000
0.437500000 0.437500000 0.000000000
0.312500000 0.000000000 0.000000000
0.312500000 0.062500000 0.000000000
0.312500000 0.250000000 0.000000000
0.312500000 0.125000000 0.000000000
0.312500000 0.187500000 0.000000000
0.500000000 0.187500000 0.000000000
0.375000000 0.187500000 0.000000000
0.437500000 0.250000000 0.000000000
0.437500000 0.187500000 0.000000000
0.437500000 0.000000000 0.000000000
0.375000000 0.062500000 0.000000000
0.437500000 0.125000000 0.000000000
0.500000000 0.062500000 0.000000000
0.437500000 0.062500000 0.000000000
0.062500000 0.250000000 0.000000000
0.000000000 0.187500000 0.000000000
0.062500000 0.187500000 0.000000000
0.250000000 0.187500000 0.000000000
0.125000000 0.187500000 0.000000000
0.187500000 0.250000000 0.000000000
0.187500000 0.187500000 0.000000000
0.187500000 0.000000000 0.000000000
0.187500000 0.125000000 0.000000000
0.250000000 0.062500000 0.000000000
0.187500000 0.062500000 0.000000000
0.000000000 0.062500000 0.000000000
0.062500000 0.125000000 0.000000000
0.125000000 0.062500000 0.000000000
0.062500000 0.000000000 0.000000000
0.062500000 0.062500000 0.000000000
0.375000000 1.000000000 0.000000000
0.375000000 0.875000000 0.000000000
0.375000000 0.750000000 0.000000000
0.375000000 0.625000000 0.000000000
0.000000000 0.625000000 0.000000000
0.250000000 0.625000000 0.000000000
0.125000000 0.625000000 0.000000000
0.125000000 1.000000000 0.000000000
0.250000000 0.875000000 0.000000000
0.125000000 0.750000000 0.000000000
0.000000000 0.875000000 0.000000000
0.125000000 0.875000000 0.000000000
1.000000000 0.625000000 0.000000000
0.875000000 0.625000000 0.000000000
0.500000000 0.625000000 0.000000000
0.750000000 0.625000000 0.000000000
0.625000000 0.625000000 0.000000000
0.625000000 1.000000000 0.000000000
0.625000000 0.750000000 0.000000000
0.500000000 0.875000000 0.000000000
0.625000000 0.875000000 0.000000000
1.000000000 0.875000000 0.000000000
0.875000000 0.750000000 0.000000000
0.750000000 0.875000000 0.000000000
0.875000000 1.000000000 0.000000000
0.875000000 0.875000000 0.000000000
0.625000000 0.000000000 0.000000000
0.625000000 0.125000000 0.000000000
0.625000000 0.500000000 0.000000000
0.625000000 0.250000000 0.000000000
0.625000000 0.375000000 0.000000000
1.000000000 0.375000000 0.000000000
0.750000000 0.375000000 0.000000000
0.875000000 0.500000000 0.000000000
0.875000000 0.375000000 0.000000000
0.875000000 0.000000000 0.000000000
0.750000000 0.125000000 0.000000000
0.875000000 0.250000000 0.000000000
1.000000000 0.125000000 0.000000000
0.875000000 0.125000000 0.000000000
0.125000000 0.500000000 0.000000000
0.000000000 0.375000000 0.000000000
0.125000000 0.375000000 0.000000000
0.500000000 0.375000000 0.000000000
0.250000000 0.375000000 0.000000000
0.375000000 0.500000000 0.000000000
0.375000000 0.375000000 0.000000000
0.375000000 0.000000000 0.000000000
0.375000000 0.250000000 0.000000000
0.500000000 0.125000000 0.000000000
0.375000000 0.125000000 0.000000000
0.000000000 0.125000000 0.000000000
0.125000000 0.250000000 0.000000000
0.250000000 0.125000000 0.000000000
0.125000000 0.000000000 0.000000000
0.125000000 0.125000000 0.000000000
0.250000000 1.000000000 0.000000000
0.000000000 0.750000000 0.000000000
0.250000000 0.750000000 0.000000000
1.000000000 0.750000000 0.000000000
0.500000000 0.750000000 0.000000000
0.750000000 1.000000000 0.000000000
0.750000000 0.750000000 0.000000000
0.750000000 0.000000000 0.000000000
0.750000000 0.500000000 0.000000000
1.000000000 0.250000000 0.000000000
0.750000000 0.250000000 0.000000000
0.000000000 0.250000000 0.000000000
0.250000000 0.500000000 0.000000000
0.500000000 0.250000000 0.000000000
0.250000000 0.000000000 0.000000000
0.250000000 0.250000000 0.000000000
0.000000000 0.500000000 0.000000000
0.500000000 1.000000000 0.000000000
1.000000000 0.500000000 0.000000000
0.500000000 0.500000000 0.000000000
0.500000000 0.000000000 0.000000000
0.000000000 1.000000000 0.000000000
1.000000000 1.000000000 0.000000000
1.000000000 0.000000000 0.000000000
0.000000000 0.000000000 0.000000000

CELLS 256 1280
4 288 206 207 203 
4 262 205 207 206 
4 263 204 207 205 
4 259 203 207 204 
4 278 201 202 199 
4 261 200 202 201 
4 263 205 202 200 
4 262 199 202 205 
4 279 197 198 195 
4 260 196 198 197 
4 263 200 198 196 
4 261 195 198 200 
4 275 193 194 192 
4 259 204 194 193 
4 263 196 194 204 
4 260 192 194 196 
4 284 190 191 187 
4 257 189 191 190 
4 258 188 191 189 
4 255 187 191 188 
4 277 185 186 183 
4 256 184 186 185 
4 258 189 186 184 
4 257 183 186 189 
4 279 195 182 180 
4 261 181 182 195 
4 258 184 182 181 
4 256 180 182 184 
4 278 178 179 201 
4 255 188 179 178 
4 258 181 179 188 
4 261 201 179 181 
4 283 176 177 173 
4 253 175 177 176 
4 254 174 177 175 
4 251 173 177 174 
4 276 171 172 169 
4 252 170 172 171 
4 254 175 172 170 
4 253 169 172 175 
4 279 180 168 166 
4 256 167 168 180 
4 254 170 168 167 
4 252 166 168 170 
4 277 164 165 185 
4 251 174 165 164 
4 254 167 165 174 
4 256 185 165 167 
4 280 162 163 159 
4 249 161 163 162 
4 250 160 163 161 
4 248 159 163 160 
4 275 192 158 156 
4 260 157 158 192 
4 250 161 158 157 
4 249 156 158 161 
4 279 166 155 197 
4 252 154 155 166 
4 250 157 155 154 
4 260 197 155 157 
4 276 152 153 171 
4 248 160 153 152 
4 250 154 153 160 
4 252 171 153 154 
4 287 150 151 147 
4 246 149 151 150 
4 247 148 151 149 
4 243 147 151 148 
4 273 145 146 143 
4 245 144 146 145 
4 247 149 146 144 
4 246 143 146 149 
4 274 141 142 139 
4 244 140 142 141 
4 247 144 142 140 
4 245 139 142 144 
4 271 137 138 136 
4 243 148 138 137 
4 247 140 138 148 
4 244 136 138 140 
4 282 134 135 131 
4 241 133 135 134 
4 242 132 135 133 
4 239 131 135 132 
4 272 129 130 127 
4 240 128 130 129 
4 242 133 130 128 
4 241 127 130 133 
4 274 139 126 124 
4 245 125 126 139 
4 242 128 126 125 
4 240 124 126 128 
4 273 122 123 145 
4 239 132 123 122 
4 242 125 123 132 
4 245 145 123 125 
4 283 173 121 118 
4 251 120 121 173 
4 238 119 121 120 
4 236 118 121 119 
4 277 116 117 164 
4 237 115 117 116 
4 238 120 117 115 
4 251 164 117 120 
4 274 124 114 112 
4 240 113 114 124 
4 238 115 114 113 
4 237 112 114 115 
4 272 110 111 129 
4 236 119 111 110 
4 238 113 111 119 
4 240 129 111 113 
4 284 108 109 190 
4 234 107 109 108 
4 235 106 109 107 
4 257 190 109 106 
4 271 136 105 103 
4 244 104 105 136 
4 235 107 105 104 
4 234 103 105 107 
4 274 112 102 141 
4 237 101 102 112 
4 235 104 102 101 
4 244 141 102 104 
4 277 183 100 116 
4 257 106 100 183 
4 235 101 100 106 
4 237 116 100 101 
4 286 98 99 95 
4 232 97 99 98 
4 233 96 99 97 
4 229 95 99 96 
4 269 93 94 91 
4 231 92 94 93 
4 233 97 94 92 
4 232 91 94 97 
4 270 89 90 87 
4 230 88 90 89 
4 233 92 90 88 
4 231 87 90 92 
4 267 85 86 84 
4 229 96 86 85 
4 233 88 86 96 
4 230 84 86 88 
4 281 82 83 79 
4 227 81 83 82 
4 228 80 83 81 
4 225 79 83 80 
4 268 77 78 75 
4 226 76 78 77 
4 228 81 78 76 
4 227 75 78 81 
4 270 87 74 72 
4 231 73 74 87 
4 228 76 74 73 
4 226 72 74 76 
4 269 70 71 93 
4 225 80 71 70 
4 228 73 71 80 
4 231 93 71 73 
4 283 118 69 66 
4 236 68 69 118 
4 224 67 69 68 
4 222 66 69 67 
4 272 64 65 110 
4 223 63 65 64 
4 224 68 65 63 
4 236 110 65 68 
4 270 72 62 60 
4 226 61 62 72 
4 224 63 62 61 
4 223 60 62 63 
4 268 58 59 77 
4 222 67 59 58 
4 224 61 59 67 
4 226 77 59 61 
4 282 56 57 134 
4 220 55 57 56 
4 221 54 57 55 
4 241 134 57 54 
4 267 84 53 51 
4 230 52 53 84 
4 221 55 53 52 
4 220 51 53 55 
4 270 60 50 89 
4 223 49 50 60 
4 221 52 50 49 
4 230 89 50 52 
4 272 127 48 64 
4 241 54 48 127 
4 221 49 48 54 
4 223 64 48 49 
4 285 46 47 43 
4 218 45 47 46 
4 219 44 47 45 
4 215 43 47 44 
4 265 41 42 39 
4 217 40 42 41 
4 219 45 42 40 
4 218 39 42 45 
4 266 37 38 35 
4 216 36 38 37 
4 219 40 38 36 
4 217 35 38 40 
4 264 33 34 32 
4 215 44 34 33 
4 219 36 34 44 
4 216 32 34 36 
4 280 159 31 28 
4 248 30 31 159 
4 214 29 31 30 
4 212 28 31 29 
4 276 26 27 152 
4 213 25 27 26 
4 214 30 27 25 
4 248 152 27 30 
4 266 35 24 22 
4 217 23 24 35 
4 214 25 24 23 
4 213 22 24 25 
4 265 20 21 41 
4 212 29 21 20 
4 214 23 21 29 
4 217 41 21 23 
4 283 66 19 176 
4 222 18 19 66 
4 211 17 19 18 
4 253 176 19 17 
4 268 15 16 58 
4 210 14 16 15 
4 211 18 16 14 
4 222 58 16 18 
4 266 22 13 11 
4 213 12 13 22 
4 211 14 13 12 
4 210 11 13 14 
4 276 169 10 26 
4 253 17 10 169 
4 211 12 10 17 
4 213 26 10 12 
4 281 8 9 82 
4 208 7 9 8 
4 209 6 9 7 
4 227 82 9 6 
4 264 32 5 3 
4 216 4 5 32 
4 209 7 5 4 
4 208 3 5 7 
4 266 11 2 37 
4 210 1 2 11 
4 209 4 2 1 
4 216 37 2 4 
4 268 75 0 15 
4 227 6 0 75 
4 209 1 0 6 
4 210 15 0 1 

CELL_TYPES 256
9 9 9 9 9 9 9 9 9 9 9 9 9 9 9 9 9 9 9 9 9 9 9 9 9 9 9 9 9 9 9 9 9 9 9 9 9 9 9 9 9 9 9 9 9 9 9 9 9 9 9 9 9 9 9 9 9 9 9 9 9 9 9 9 9 9 9 9 9 9 9 9 9 9 9 9 9 9 9 9 9 9 9 9 9 9 9 9 9 9 9 9 9 9 9 9 9 9 9 9 9 9 9 9 9 9 9 9 9 9 9 9 9 9 9 9 9 9 9 9 9 9 9 9 9 9 9 9 9 9 9 9 9 9 9 9 9 9 9 9 9 9 9 9 9 9 9 9 9 9 9 9 9 9 9 9 9 9 9 9 9 9 9 9 9 9 9 9 9 9 9 9 9 9 9 9 9 9 9 9 9 9 9 9 9 9 9 9 9 9 9 9 9 9 9 9 9 9 9 9 9 9 9 9 9 9 9 9 9 9 9 9 9 9 9 9 9 9 9 9 9 9 9 9 9 9 9 9 9 9 9 9 9 9 9 9 9 9 9 9 9 9 9 9 9 9 9 9 9 9 9 9 9 9 9 9 

POINT_DATA 289
SCALARS C float
LOOKUP_TABLE default
0.546648606
0.514931633
0.463426165
0.000000000
0.319213495
0.162733628
0.376538109
0.180819943
0.000000000
0.191957463
0.818117196
0.589829628
0.770649548
0.693566269
0.770649649
0.695751704
0.818117454
0.909043242
0.909043409
0.965035336
0.000000000
0.162733591
0.589829573
0.319213430
0.463426091
0.514931483
0.695751419
0.546648346
0.000000000
0.180819878
0.376537914
0.191957359
0.138393562
0.000000000
0.108735117
0.394111495
0.213291604
0.394111520
0.309651414
0.000000000
0.213291595
0.138393543
0.108735109
0.000000000
0.074898048
0.074898046
0.000000000
0.038182693
0.546651879
0.514934810
0.463429086
0.000006015
0.319217269
0.162738424
0.376542442
0.180825249
0.000007096
0.191963060
0.834145538
0.818117970
0.589831840
0.770650700
0.693567897
0.770651356
0.695754093
0.818119116
0.983941751
0.909043982
0.909044482
0.965035944
0.000000000
0.162734010
0.589831012
0.319214243
0.463427252
0.557358230
0.514932335
0.695752142
0.546648951
0.000000000
0.180820190
0.376538346
0.195718183
0.191957584
0.138397654
0.000004019
0.108738339
0.394113035
0.213294160
0.394114041
0.309653415
0.000000000
0.213292982
0.138394094
0.108735819
0.000001411
0.074900270
0.074898949
0.000000000
0.038183827
0.546648951
0.514932335
0.463427252
0.000000000
0.319214243
0.162734010
0.376538346
0.180820190
0.000000000
0.191957584
0.834147017
0.818119116
0.589831012
0.770651356
0.693567897
0.770650700
0.695752142
0.818117970
0.983942116
0.909044482
0.909043982
0.965035944
0.000006015
0.162738424
0.589831840
0.319217269
0.463429086
0.557361422
0.514934810
0.695754093
0.546651879
0.000007096
0.180825249
0.376542442
0.195723839
0.191963060
0.138394094
0.000000000
0.108735819
0.394114041
0.213292982
0.394113035
0.309653415
0.000004019
0.213294160
0.138397654
0.108738339
0.000000000
0.074898949
0.074900270
0.000001411
0.038183827
0.557357821
0.546648346
0.514931483
0.463426091
0.000000000
0.319213430
0.162733591
0.195718026
0.376537914
0.180819878
0.000000000
0.191957359
0.834145538
0.818117454
0.589829573
0.770649649
0.693566269
0.834145060
0.770649548
0.695751419
0.818117196
0.983941751
0.909043409
0.909043242
0.983941496
0.965035336
0.000000000
0.162733628
0.589829628
0.319213495
0.463426165
0.557358230
0.514931633
0.695751704
0.546648606
0.000000000
0.180819943
0.376538109
0.195718183
0.191957463
0.138393543
0.000000000
0.108735109
0.394111520
0.213291595
0.394111495
0.309651414
0.000000000
0.213291604
0.138393562
0.108735117
0.000000000
0.074898046
0.074898048
0.000000000
0.038182693
0.000000000
0.354691078
0.655383654
0.856300010
0.000000000
0.655383506
0.354690959
0.000000000
0.271468737
0.271468707
0.000000000
0.146917806
0.000006684
0.354695225
0.926852862
0.655386025
0.856301178
0.000000000
0.655384548
0.383915026
0.354691561
0.000002769
0.271471972
0.271469780
0.000000000
0.146919573
0.000000000
0.354691561
0.926853716
0.655384548
0.856301178
0.000006684
0.655386025
0.383919345
0.354695225
0.000000000
0.271469780
0.271471972
0.000002769
0.146919573
0.383914727
0.000000000
0.354690959
0.926852862
0.655383506
0.926852452
0.856300010
0.000000000
0.655383654
0.383915026
0.354691078
0.000000000
0.271468707
0.271468737
0.000000000
0.146917806
0.000000000
0.000000000
0.501608819
0.000005116
0.709382469
0.000000000
0.501610747
0.000000000
0.709384722
0.000005116
0.501610747
0.000000000
0.709381995
0.709382469
0.000000000
0.501608819
0.000000000
0.000000000
0.000007235
1.003218309
0.000000000
0.000000000
0.000000000
0.000000000
0.000000000



